# LAMMPS data file
756 atoms
3 atom types
0.0 32.39794198551478 xlo xhi
0.0 23.64774 ylo yhi
0.0 77.32469402918946 zlo zhi

Atoms # atomic

1 1 5.07362 3.05499 31.4383
2 1 8.95332 4.82759 30
3 1 10.4733 0.886302 31.4383
4 1 3.55366 6.99628 30
5 2 6.08428 5.36421 30.2063
6 2 7.94266 2.51837 31.232
7 2 0.684626 6.45966 30.2063
8 2 2.543 1.42292 31.232
9 2 8.45027 7.31804 30.6132
10 2 5.57667 0.564542 30.8251
11 2 3.05061 4.50583 30.6132
12 2 0.177018 3.37675 30.8251
13 1 8.30125 3.05499 34.086
14 1 1.38163 4.82759 32.6477
15 1 2.90159 0.886302 34.086
16 1 6.78129 6.99628 32.6477
17 2 9.31191 5.36421 32.854
18 2 0.370971 2.51837 33.8797
19 2 3.91225 6.45966 32.854
20 2 5.77063 1.42292 33.8797
21 2 0.878579 7.31804 33.261
22 2 8.8043 0.564542 33.4728
23 2 6.27824 4.50583 33.261
24 2 3.40464 3.37675 33.4728
25 1 0.72956 3.05499 36.7338
26 1 4.60926 4.82759 35.2955
27 1 6.12922 0.886302 36.7338
28 1 10.0089 6.99628 35.2955
29 2 1.74022 5.36421 35.5017
30 2 3.5986 2.51837 36.5275
31 2 7.13988 6.45966 35.5017
32 2 8.99826 1.42292 36.5275
33 2 4.10621 7.31804 35.9087
34 2 1.23262 0.564542 36.1205
35 2 9.50586 4.50583 35.9087
36 2 6.63227 3.37675 36.1205
37 1 3.82508 3.09664 39.6494
38 1 8.00922 4.75673 37.8603
39 1 9.30455 0.857913 39.4968
40 1 2.42157 6.95959 38.1531
41 2 4.8973 5.36818 38.6883
42 2 6.66687 2.52716 39.2943
43 2 10.6238 6.32926 37.9488
44 2 1.42522 1.87262 39.3357
45 2 7.24974 6.86604 38.5673
46 2 4.35002 0.619109 38.6981
47 2 1.84048 4.59487 38.3986
48 2 9.72898 3.14477 38.7232
49 1 7.05329 3.16285 42.0936
50 1 0.27863 4.77207 40.8684
51 1 1.54279 0.842934 42.3106
52 1 5.57323 6.8776 40.741
53 2 8.50183 5.09178 41.1874
54 2 7.88544 2.0545 44.4772
55 2 2.69977 6.61306 41.0689
56 2 2.8576 21.9797 40.9754
57 2 10.4237 7.27214 41.5288
58 2 7.58553 0.614783 41.4118
59 2 4.78713 4.38235 41.4188
60 2 16.2981 2.43592 46.842
61 1 10.1534 3.23584 44.6132
62 1 3.5036 4.59812 43.602
63 1 5.34684 0.716365 44.9194
64 1 8.94086 7.35506 43.4807
65 2 10.9121 0.752653 44.2612
66 2 0.816025 5.56485 43.6418
67 2 6.83253 7.38264 46.3753
68 2 29.6488 1.37196 44.6864
69 2 6.14344 5.99568 43.5726
70 2 1.59308 4.53094 46.9049
71 2 13.1052 3.68373 41.3325
72 2 2.18644 3.28857 41.8471
73 1 3.0845 2.65608 47.4941
74 1 6.75903 4.7225 45.9747
75 1 8.39944 0.736216 47.5403
76 1 1.88812 7.22968 46.4307
77 2 4.64416 1.57988 42.1116
78 2 10.1806 1.91956 42.3338
79 2 7.88862 9.71474 44.8425
80 2 30.7234 22.3205 46.128
81 2 5.70567 11.2578 44.082
82 2 21.5224 0.679634 44.1
83 2 3.9667 20.5368 46.2442
84 2 8.55306 3.11303 47.5391
85 1 5.07362 10.9376 31.4383
86 1 8.95332 12.7102 30
87 1 10.4733 8.76888 31.4383
88 1 3.55366 14.8789 30
89 2 6.08428 13.2468 30.2063
90 2 7.94266 10.401 31.232
91 2 0.684626 14.3422 30.2063
92 2 2.543 9.3055 31.232
93 2 8.45027 15.2006 30.6132
94 2 5.57667 8.44712 30.8251
95 2 3.05061 12.3884 30.6132
96 2 0.177018 11.2593 30.8251
97 1 8.30125 10.9376 34.086
98 1 1.38163 12.7102 32.6477
99 1 2.90159 8.76888 34.086
100 1 6.78129 14.8789 32.6477
101 2 9.31191 13.2468 32.854
102 2 0.370971 10.401 33.8797
103 2 3.91225 14.3422 32.854
104 2 5.77063 9.3055 33.8797
105 2 0.878579 15.2006 33.261
106 2 8.8043 8.44712 33.4728
107 2 6.27824 12.3884 33.261
108 2 3.40464 11.2593 33.4728
109 1 0.72956 10.9376 36.7338
110 1 4.60926 12.7102 35.2955
111 1 6.12922 8.76888 36.7338
112 1 10.0089 14.8789 35.2955
113 2 1.74022 13.2468 35.5017
114 2 3.5986 10.401 36.5275
115 2 7.13988 14.3422 35.5017
116 2 8.99826 9.3055 36.5275
117 2 4.10621 15.2006 35.9087
118 2 1.23262 8.44712 36.1205
119 2 9.50586 12.3884 35.9087
120 2 6.63227 11.2593 36.1205
121 1 4.10312 10.7426 39.3707
122 1 7.894 12.7661 37.9849
123 1 9.29726 8.69725 39.4041
124 1 2.52237 14.7768 37.9116
125 2 4.98401 12.9394 38.2831
126 2 6.74257 10.3921 38.889
127 2 14.0982 13.8467 40.6182
128 2 1.49656 9.19276 39.182
129 2 7.13356 15.233 38.66
130 2 4.71174 8.33203 38.5965
131 2 2.1655 12.3754 38.7179
132 2 9.67801 11.1121 39.147
133 1 7.35691 11.0472 42.1694
134 1 0.519805 12.8463 40.6041
135 1 1.6578 8.58349 42.3394
136 1 5.50348 14.738 40.5557
137 2 8.19103 13.3522 40.746
138 2 11.1118 9.42118 47.4263
139 2 2.88125 13.9151 40.934
140 2 2.96956 7.19839 44.3867
141 2 10.8138 14.9636 41.596
142 2 4.66352 9.09363 42.1076
143 2 5.49597 12.4984 41.289
144 2 31.9639 10.4024 42.3023
145 1 10.6787 11.0395 45.1379
146 1 3.55411 12.2708 43.2464
147 1 5.29422 8.75654 44.8021
148 1 8.91521 15.036 43.2487
149 2 30.0216 12.4943 44.2547
150 2 9.32526 6.38863 46.0064
151 2 8.46222 12.6137 43.7919
152 2 4.31823 12.9336 46.4373
153 2 4.87037 17.8102 41.9877
154 2 25.4714 5.16751 46.4029
155 2 30.975 14.4148 46.0904
156 2 2.66818 10.7039 45.1049
157 1 3.07504 10.8998 47.6309
158 1 6.97786 12.5552 45.9001
159 1 8.54516 8.67123 47.6159
160 1 1.36549 14.7388 45.993
161 2 3.80229 14.8718 43.2518
162 2 4.01805 8.46387 47.1172
163 2 23.0574 12.2809 46.4591
164 2 5.45506 20.2511 41.1166
165 2 10.7618 8.80218 44.4054
166 2 1.34147 12.4074 46.9463
167 2 8.42811 4.35218 43.5309
168 1 5.07362 18.8201 31.4383
169 1 8.95332 20.5928 30
170 1 10.4733 16.6515 31.4383
171 1 3.55366 22.7614 30
172 2 6.08428 21.1294 30.2063
173 2 7.94266 18.2835 31.232
174 2 0.684626 22.2248 30.2063
175 2 2.543 17.1881 31.232
176 2 8.45027 23.0832 30.6132
177 2 5.57667 16.3297 30.8251
178 2 3.05061 20.271 30.6132
179 2 0.177018 19.1419 30.8251
180 1 8.30125 18.8201 34.086
181 1 1.38163 20.5928 32.6477
182 1 2.90159 16.6515 34.086
183 1 6.78129 22.7614 32.6477
184 2 9.31191 21.1294 32.854
185 2 0.370971 18.2835 33.8797
186 2 3.91225 22.2248 32.854
187 2 5.77063 17.1881 33.8797
188 2 0.878579 23.0832 33.261
189 2 8.8043 16.3297 33.4728
190 2 6.27824 20.271 33.261
191 2 3.40464 19.1419 33.4728
192 1 0.72956 18.8201 36.7338
193 1 4.60926 20.5928 35.2955
194 1 6.12922 16.6515 36.7338
195 1 10.0089 22.7614 35.2955
196 2 1.74022 21.1294 35.5017
197 2 3.5986 18.2835 36.5275
198 2 7.13988 22.2248 35.5017
199 2 8.99826 17.1881 36.5275
200 2 4.10621 23.0832 35.9087
201 2 1.23262 16.3297 36.1205
202 2 9.50586 20.271 35.9087
203 2 6.63227 19.1419 36.1205
204 1 3.89962 18.7947 39.2932
205 1 7.74498 20.8102 38.1691
206 1 9.30985 16.6483 39.4177
207 1 2.26899 22.8356 37.9729
208 2 4.83425 21.0627 38.2215
209 2 6.88836 18.2586 39.3138
210 2 10.5389 22.2089 37.8537
211 2 1.66949 16.9338 39.4117
212 2 7.18187 23.3937 38.6369
213 2 4.2926 16.2596 38.8275
214 2 1.98976 20.227 38.4107
215 2 9.8705 19.0991 38.8976
216 1 7.43599 19.033 42.0366
217 1 0.0371852 20.5475 40.906
218 1 1.92974 16.7096 41.9383
219 1 5.45678 22.828 40.495
220 2 14.2281 15.6293 47.1909
221 2 15.8016 17.584 42.0062
222 2 30.1604 18.8222 47.345
223 2 0.524209 21.5895 43.3612
224 2 3.13221 23.1209 44.4021
225 2 8.30191 17.9359 44.7287
226 2 9.71076 22.4153 45.794
227 2 32.0217 15.4726 41.2125
228 1 10.7137 19.1815 45.1717
229 1 3.40523 20.464 43.3096
230 1 5.14958 16.5061 44.5385
231 1 8.86361 23.3607 43.2907
232 2 4.31546 4.55869 46.415
233 2 27.0736 18.8373 44.1246
234 2 8.40589 21.0604 40.7974
235 2 6.23788 9.90711 46.9929
236 2 5.98042 17.5109 46.9477
237 2 24.9159 16.2717 47.3803
238 2 8.47725 19.4142 47.7801
239 2 2.63862 17.9691 44.6581
240 1 2.97133 18.4281 47.2108
241 1 6.70958 20.4548 46.1299
242 1 8.41913 16.7308 47.2217
243 1 1.25011 22.7085 46.0044
244 2 0.674302 16.0447 44.0077
245 2 0.227751 0.744906 44.2589
246 2 1.20198 20.1144 46.7291
247 2 16.7666 10.3599 47.6519
248 2 5.62783 3.53966 44.2513
249 2 29.72 16.9956 45.0238
250 2 28.1524 14.9182 46.7148
251 2 2.21265 19.2612 41.6201
252 1 15.8729 3.05499 31.4383
253 1 19.7526 4.82759 30
254 1 21.2726 0.886302 31.4383
255 1 14.353 6.99628 30
256 2 16.8836 5.36421 30.2063
257 2 18.742 2.51837 31.232
258 2 11.4839 6.45966 30.2063
259 2 13.3423 1.42292 31.232
260 2 19.2496 7.31804 30.6132
261 2 16.376 0.564542 30.8251
262 2 13.8499 4.50583 30.6132
263 2 10.9763 3.37675 30.8251
264 1 19.1006 3.05499 34.086
265 1 12.1809 4.82759 32.6477
266 1 13.7009 0.886302 34.086
267 1 17.5806 6.99628 32.6477
268 2 20.1112 5.36421 32.854
269 2 11.1703 2.51837 33.8797
270 2 14.7116 6.45966 32.854
271 2 16.5699 1.42292 33.8797
272 2 11.6779 7.31804 33.261
273 2 19.6036 0.564542 33.4728
274 2 17.0775 4.50583 33.261
275 2 14.204 3.37675 33.4728
276 1 11.5289 3.05499 36.7338
277 1 15.4086 4.82759 35.2955
278 1 16.9285 0.886302 36.7338
279 1 20.8082 6.99628 35.2955
280 2 12.5395 5.36421 35.5017
281 2 14.3979 2.51837 36.5275
282 2 17.9392 6.45966 35.5017
283 2 19.7976 1.42292 36.5275
284 2 14.9055 7.31804 35.9087
285 2 12.0319 0.564542 36.1205
286 2 20.3052 4.50583 35.9087
287 2 17.4316 3.37675 36.1205
288 1 14.6685 3.09625 39.3509
289 1 18.4627 4.8762 37.9371
290 1 20.0023 0.889683 39.3625
291 1 13.3156 6.89134 37.9156
292 2 15.7912 5.52862 38.3329
293 2 17.3003 1.92201 39.3543
294 2 21.5886 6.1832 38.2204
295 2 6.92399 15.0779 45.51
296 2 18.0769 7.2372 38.1746
297 2 12.3587 1.18179 39.5011
298 2 12.6564 4.49553 38.4375
299 2 20.4716 3.22463 39.0127
300 1 17.9188 2.84676 42.1695
301 1 10.8938 4.88786 40.7484
302 1 12.6795 0.786293 42.2654
303 1 16.3214 7.1361 40.7955
304 2 19.0188 5.58727 40.5638
305 2 24.2501 2.72417 44.8654
306 2 13.2398 6.16363 40.5641
307 2 13.5641 22.3728 40.3838
308 2 22.2395 5.31539 43.5688
309 2 18.3355 0.330868 41.3889
310 2 15.7714 4.45794 41.1896
311 2 11.5562 5.51906 43.5037
312 1 21.2327 3.03596 44.8499
313 1 14.5126 4.59142 43.4296
314 1 16.0274 0.497515 44.7964
315 1 19.8305 6.85207 43.7132
316 2 14.0254 0.237004 47.2301
317 2 19.8473 3.32515 47.0748
318 2 14.3463 5.46869 45.9928
319 2 16.568 3.1352 44.3961
320 2 14.2114 7.23157 43.76
321 2 7.00926 22.9308 46.1082
322 2 21.5841 8.32944 44.1809
323 2 19.2735 20.2579 43.8854
324 1 13.5606 2.67987 47.3224
325 1 17.4717 4.86514 46.2419
326 1 19.4657 0.854122 47.2739
327 1 12.0791 6.91531 45.9512
328 2 15.2876 0.757067 41.9772
329 2 13.9164 22.9514 44.6393
330 2 18.721 8.32643 41.5527
331 2 10.949 0.969478 47.4491
332 2 10.2198 10.3388 41.767
333 2 3.52746 16.1231 46.5453
334 2 12.0703 13.0584 43.858
335 2 11.8478 4.44222 46.3212
336 1 15.8729 10.9376 31.4383
337 1 19.7526 12.7102 30
338 1 21.2726 8.76888 31.4383
339 1 14.353 14.8789 30
340 2 16.8836 13.2468 30.2063
341 2 18.742 10.401 31.232
342 2 11.4839 14.3422 30.2063
343 2 13.3423 9.3055 31.232
344 2 19.2496 15.2006 30.6132
345 2 16.376 8.44712 30.8251
346 2 13.8499 12.3884 30.6132
347 2 10.9763 11.2593 30.8251
348 1 19.1006 10.9376 34.086
349 1 12.1809 12.7102 32.6477
350 1 13.7009 8.76888 34.086
351 1 17.5806 14.8789 32.6477
352 2 20.1112 13.2468 32.854
353 2 11.1703 10.401 33.8797
354 2 14.7116 14.3422 32.854
355 2 16.5699 9.3055 33.8797
356 2 11.6779 15.2006 33.261
357 2 19.6036 8.44712 33.4728
358 2 17.0775 12.3884 33.261
359 2 14.204 11.2593 33.4728
360 1 11.5289 10.9376 36.7338
361 1 15.4086 12.7102 35.2955
362 1 16.9285 8.76888 36.7338
363 1 20.8082 14.8789 35.2955
364 2 12.5395 13.2468 35.5017
365 2 14.3979 10.401 36.5275
366 2 17.9392 14.3422 35.5017
367 2 19.7976 9.3055 36.5275
368 2 14.9055 15.2006 35.9087
369 2 12.0319 8.44712 36.1205
370 2 20.3052 12.3884 35.9087
371 2 17.4316 11.2593 36.1205
372 1 14.8634 11.003 39.3627
373 1 18.6171 12.5621 37.9756
374 1 20.1904 8.7326 39.293
375 1 13.1703 14.8165 37.8131
376 2 15.79 13.1293 37.8069
377 2 16.6996 12.3365 40.5639
378 2 21.182 14.0964 38.8861
379 2 12.0788 9.33127 38.7842
380 2 19.506 13.4302 41.1916
381 2 15.1761 8.52104 39.0679
382 2 10.5828 14.7606 38.385
383 2 21.5486 10.7442 42.3408
384 1 18.0846 10.9722 42.145
385 1 11.0959 12.6337 40.7418
386 1 12.4884 8.76709 42.1304
387 1 16.7302 14.725 40.5578
388 2 17.1257 13.9725 43.4449
389 2 18.0451 10.1839 39.1522
390 2 12.6262 12.3276 38.5964
391 2 20.3824 6.62346 46.4711
392 2 20.4762 11.1123 39.0241
393 2 16.9889 6.54999 43.6941
394 2 15.7315 9.75306 42.0671
395 2 14.2208 8.53808 46.8792
396 1 21.5094 10.7983 45.1782
397 1 14.687 12.3805 43.2149
398 1 15.8788 8.76557 45.1629
399 1 19.5773 14.7267 43.7124
400 2 11.0982 15.889 43.9462
401 2 13.0601 11.2215 41.4763
402 2 22.8537 9.02481 39.145
403 2 21.8612 8.90647 47.4118
404 2 18.8187 17.7811 44.8892
405 2 10.4528 23.2686 41.3009
406 2 9.8183 17.9355 41.8093
407 2 8.91837 11.1967 47.2749
408 1 13.8835 10.7888 47.8658
409 1 17.6442 12.5351 46.0026
410 1 19.1744 8.81499 47.7181
411 1 12.2959 14.6202 45.7373
412 2 18.8219 9.14678 44.8964
413 2 20.1815 14.7297 46.6952
414 2 17.4288 7.07804 47.0564
415 2 13.3641 10.2442 44.5764
416 2 16.6424 10.9867 44.0934
417 2 7.86412 8.47593 41.3951
418 2 16.4693 18.8191 44.1333
419 1 15.8729 18.8201 31.4383
420 1 19.7526 20.5928 30
421 1 21.2726 16.6515 31.4383
422 1 14.353 22.7614 30
423 2 16.8836 21.1294 30.2063
424 2 18.742 18.2835 31.232
425 2 11.4839 22.2248 30.2063
426 2 13.3423 17.1881 31.232
427 2 19.2496 23.0832 30.6132
428 2 16.376 16.3297 30.8251
429 2 13.8499 20.271 30.6132
430 2 10.9763 19.1419 30.8251
431 1 19.1006 18.8201 34.086
432 1 12.1809 20.5928 32.6477
433 1 13.7009 16.6515 34.086
434 1 17.5806 22.7614 32.6477
435 2 20.1112 21.1294 32.854
436 2 11.1703 18.2835 33.8797
437 2 14.7116 22.2248 32.854
438 2 16.5699 17.1881 33.8797
439 2 11.6779 23.0832 33.261
440 2 19.6036 16.3297 33.4728
441 2 17.0775 20.271 33.261
442 2 14.204 19.1419 33.4728
443 1 11.5289 18.8201 36.7338
444 1 15.4086 20.5928 35.2955
445 1 16.9285 16.6515 36.7338
446 1 20.8082 22.7614 35.2955
447 2 12.5395 21.1294 35.5017
448 2 14.3979 18.2835 36.5275
449 2 17.9392 22.2248 35.5017
450 2 19.7976 17.1881 36.5275
451 2 14.9055 23.0832 35.9087
452 2 12.0319 16.3297 36.1205
453 2 20.3052 20.271 35.9087
454 2 17.4316 19.1419 36.1205
455 1 14.8272 18.6481 39.3049
456 1 18.7717 20.4933 38.0654
457 1 20.2671 16.4936 39.7861
458 1 13.4717 22.6962 37.9517
459 2 15.9531 21.3358 38.0612
460 2 18.4017 15.2231 38.3907
461 2 21.3077 22.3589 38.7978
462 2 12.255 16.755 39.3844
463 2 18.3835 22.8162 38.6894
464 2 17.5138 18.2011 39.487
465 2 12.5753 19.8911 38.6101
466 2 20.675 18.9905 39.0714
467 1 17.9105 18.8467 41.977
468 1 11.0745 20.8358 40.8562
469 1 12.517 16.5957 41.8985
470 1 16.6428 22.468 40.3608
471 2 17.4872 15.0316 46.6043
472 2 12.3653 12.314 46.6754
473 2 15.4746 0.373754 38.54
474 2 18.4449 16.3516 41.9437
475 2 20.852 22.941 41.3423
476 2 16.2849 18.0531 47.0439
477 2 15.9245 20.4051 41.2024
478 2 13.0117 19.0109 41.2129
479 1 21.3091 19.1181 44.9013
480 1 14.6005 20.3408 43.1357
481 1 16.0565 16.5118 44.6924
482 1 19.6412 22.6383 43.4685
483 2 6.21665 22.3061 43.355
484 2 19.6442 19.0574 47.2555
485 2 19.2054 20.6566 41.0524
486 2 13.6833 1.95217 44.5474
487 2 13.535 17.7436 44.8063
488 2 8.93083 20.6237 43.2522
489 2 21.3472 18.2009 41.9508
490 2 15.2218 16.104 38.7551
491 1 13.6433 17.9368 47.5836
492 1 17.7132 20.0673 46.008
493 1 19.0703 16.8414 47.7899
494 1 12.1735 22.795 46.0847
495 2 11.8653 20.807 43.4848
496 2 5.63988 19.2441 44.0806
497 2 9.24785 14.3454 45.8062
498 2 32.0566 17.799 42.265
499 2 17.9756 22.7343 45.9272
500 2 18.8433 1.56954 44.964
501 2 11.1939 16.919 47.1492
502 2 21.4767 16.7572 47.1053
503 1 26.6722 3.05499 31.4383
504 1 30.5519 4.82759 30
505 1 32.0719 0.886302 31.4383
506 1 25.1523 6.99628 30
507 2 27.6829 5.36421 30.2063
508 2 29.5413 2.51837 31.232
509 2 22.2833 6.45966 30.2063
510 2 24.1416 1.42292 31.232
511 2 30.0489 7.31804 30.6132
512 2 27.1753 0.564542 30.8251
513 2 24.6492 4.50583 30.6132
514 2 21.7756 3.37675 30.8251
515 1 29.8999 3.05499 34.086
516 1 22.9803 4.82759 32.6477
517 1 24.5002 0.886302 34.086
518 1 28.3799 6.99628 32.6477
519 2 30.9105 5.36421 32.854
520 2 21.9696 2.51837 33.8797
521 2 25.5109 6.45966 32.854
522 2 27.3693 1.42292 33.8797
523 2 22.4772 7.31804 33.261
524 2 30.4029 0.564542 33.4728
525 2 27.8769 4.50583 33.261
526 2 25.0033 3.37675 33.4728
527 1 22.3282 3.05499 36.7338
528 1 26.2079 4.82759 35.2955
529 1 27.7278 0.886302 36.7338
530 1 31.6075 6.99628 35.2955
531 2 23.3389 5.36421 35.5017
532 2 25.1972 2.51837 36.5275
533 2 28.7385 6.45966 35.5017
534 2 30.5969 1.42292 36.5275
535 2 25.7048 7.31804 35.9087
536 2 22.8312 0.564542 36.1205
537 2 31.1045 4.50583 35.9087
538 2 28.2309 3.37675 36.1205
539 1 25.8618 3.10365 39.5528
540 1 29.579 4.84867 38.1934
541 1 30.9199 0.85952 39.4697
542 1 24.002 7.00255 38.074
543 2 26.9737 4.79589 38.093
544 2 28.5054 2.86544 39.5561
545 2 31.9969 6.4552 37.7922
546 2 22.7777 1.209 39.3882
547 2 29.0768 7.53028 38.5213
548 2 26.138 0.721476 38.7792
549 2 23.4448 4.4089 38.6352
550 2 31.6694 3.50621 38.9091
551 1 28.7304 3.35663 42.0996
552 1 22.0501 4.93051 40.5061
553 1 23.1033 0.722717 42.2371
554 1 27.2231 7.24017 40.6785
555 2 30.0267 5.21499 40.8699
556 2 31.7354 2.26905 41.7409
557 2 24.2993 6.524 40.6871
558 2 32.0428 1.31758 47.292
559 2 0.389868 8.62211 44.7437
560 2 27.0476 3.1442 44.0489
561 2 24.2183 11.443 41.6619
562 2 24.0973 3.5861 41.2178
563 1 32.0875 3.35233 45.2573
564 1 25.1267 4.65017 43.4612
565 1 26.7379 0.813501 44.6385
566 1 30.5814 7.02108 43.4303
567 2 5.78311 2.39034 46.8485
568 2 24.6775 23.1164 44.0559
569 2 26.7153 4.75507 41.1848
570 2 20.608 2.772 42.0667
571 2 27.4718 9.75342 47.1204
572 2 21.9983 13.3364 44.0567
573 2 30.0738 4.54709 44.5262
574 2 22.2983 1.49201 47.4305
575 1 24.414 2.8827 47.4828
576 1 28.1202 4.41591 46.044
577 1 29.6955 0.761504 47.3852
578 1 22.9654 6.80569 46.055
579 2 24.4468 6.81543 43.6989
580 2 22.7446 4.39781 47.1627
581 2 27.1142 11.28 44.2398
582 2 17.0368 21.7284 43.5267
583 2 25.1212 8.47687 46.56
584 2 12.7093 20.2575 47.1535
585 2 18.8698 4.37475 44.3304
586 2 30.1367 3.07757 46.8696
587 1 26.6722 10.9376 31.4383
588 1 30.5519 12.7102 30
589 1 32.0719 8.76888 31.4383
590 1 25.1523 14.8789 30
591 2 27.6829 13.2468 30.2063
592 2 29.5413 10.401 31.232
593 2 22.2833 14.3422 30.2063
594 2 24.1416 9.3055 31.232
595 2 30.0489 15.2006 30.6132
596 2 27.1753 8.44712 30.8251
597 2 24.6492 12.3884 30.6132
598 2 21.7756 11.2593 30.8251
599 1 29.8999 10.9376 34.086
600 1 22.9803 12.7102 32.6477
601 1 24.5002 8.76888 34.086
602 1 28.3799 14.8789 32.6477
603 2 30.9105 13.2468 32.854
604 2 21.9696 10.401 33.8797
605 2 25.5109 14.3422 32.854
606 2 27.3693 9.3055 33.8797
607 2 22.4772 15.2006 33.261
608 2 30.4029 8.44712 33.4728
609 2 27.8769 12.3884 33.261
610 2 25.0033 11.2593 33.4728
611 1 22.3282 10.9376 36.7338
612 1 26.2079 12.7102 35.2955
613 1 27.7278 8.76888 36.7338
614 1 31.6075 14.8789 35.2955
615 2 23.3389 13.2468 35.5017
616 2 25.1972 10.401 36.5275
617 2 28.7385 14.3422 35.5017
618 2 30.5969 9.3055 36.5275
619 2 25.7048 15.2006 35.9087
620 2 22.8312 8.44712 36.1205
621 2 31.1045 12.3884 35.9087
622 2 28.2309 11.2593 36.1205
623 1 25.7327 11.0708 39.3615
624 1 29.3718 12.7062 38.1482
625 1 31.0024 8.83826 39.3575
626 1 23.9124 14.8321 37.9593
627 2 26.8119 12.8433 38.1998
628 2 28.416 10.1493 39.1565
629 2 31.5405 14.4384 38.2483
630 2 26.0077 8.27105 38.8132
631 2 28.7399 15.1976 38.6887
632 2 26.549 9.28025 42.0824
633 2 23.6871 12.4359 38.276
634 2 31.053 11.1891 39.0766
635 1 28.7703 11.2823 42.2152
636 1 22.1081 12.7214 41.0863
637 1 23.4753 8.64765 42.4035
638 1 27.3877 14.8921 40.908
639 2 1.03155 13.1889 43.8479
640 2 29.3024 8.9226 45.1142
641 2 21.2602 15.1593 41.5945
642 2 26.9494 12.5115 40.9651
643 2 2.4871 11.0523 41.3263
644 2 27.6768 6.02566 43.6488
645 2 27.7187 14.2379 43.5147
646 2 21.4453 7.57118 41.4144
647 1 32.1143 11.0611 45.2591
648 1 25.0842 12.7673 43.7457
649 1 26.7016 8.31896 44.9829
650 1 30.6945 15.0553 43.5282
651 2 19.6583 11.1919 46.9565
652 2 14.8622 12.892 45.8002
653 2 29.2922 8.74845 41.388
654 2 31.0412 6.44135 46.0257
655 2 25.7508 15.9695 39.0002
656 2 14.1448 15.1173 43.8792
657 2 29.9153 13.5463 41.3717
658 2 24.4719 15.2628 44.2078
659 1 24.7224 10.7135 47.4446
660 1 28.4949 12.3099 46.1952
661 1 29.6978 8.27729 47.3765
662 1 22.8805 14.8337 46.1476
663 2 24.3885 10.0023 44.7229
664 2 30.4826 10.9249 46.9491
665 2 0.986335 9.36862 47.2496
666 2 25.67 12.9602 46.2264
667 2 31.7274 7.27752 41.391
668 2 7.16526 16.3027 41.5689
669 2 26.1567 17.5774 42.2522
670 2 27.8745 6.86258 46.6369
671 1 26.6722 18.8201 31.4383
672 1 30.5519 20.5928 30
673 1 32.0719 16.6515 31.4383
674 1 25.1523 22.7614 30
675 2 27.6829 21.1294 30.2063
676 2 29.5413 18.2835 31.232
677 2 22.2833 22.2248 30.2063
678 2 24.1416 17.1881 31.232
679 2 30.0489 23.0832 30.6132
680 2 27.1753 16.3297 30.8251
681 2 24.6492 20.271 30.6132
682 2 21.7756 19.1419 30.8251
683 1 29.8999 18.8201 34.086
684 1 22.9803 20.5928 32.6477
685 1 24.5002 16.6515 34.086
686 1 28.3799 22.7614 32.6477
687 2 30.9105 21.1294 32.854
688 2 21.9696 18.2835 33.8797
689 2 25.5109 22.2248 32.854
690 2 27.3693 17.1881 33.8797
691 2 22.4772 23.0832 33.261
692 2 30.4029 16.3297 33.4728
693 2 27.8769 20.271 33.261
694 2 25.0033 19.1419 33.4728
695 1 22.3282 18.8201 36.7338
696 1 26.2079 20.5928 35.2955
697 1 27.7278 16.6515 36.7338
698 1 31.6075 22.7614 35.2955
699 2 23.3389 21.1294 35.5017
700 2 25.1972 18.2835 36.5275
701 2 28.7385 22.2248 35.5017
702 2 30.5969 17.1881 36.5275
703 2 25.7048 23.0832 35.9087
704 2 22.8312 16.3297 36.1205
705 2 31.1045 20.271 35.9087
706 2 28.2309 19.1419 36.1205
707 1 25.4431 18.769 39.357
708 1 29.3345 20.7221 38.0155
709 1 30.8398 16.7547 39.3936
710 1 23.8772 23.0589 37.9127
711 2 26.5517 21.2787 38.0965
712 2 28.2405 18.3398 39.025
713 2 32.1808 22.417 37.9535
714 2 24.4736 14.4422 41.201
715 2 28.8539 23.108 38.7293
716 2 22.9148 17.5286 38.8724
717 2 23.4915 20.2624 38.5436
718 2 31.4595 19.1218 38.8347
719 1 28.6164 18.7681 42.314
720 1 21.8832 20.539 40.5234
721 1 23.3088 16.6521 42.373
722 1 27.0407 22.7531 40.4526
723 2 29.7465 21.1824 40.7497
724 2 0.370068 17.515 47.3655
725 2 24.2656 22.0596 40.9459
726 2 22.7375 20.3298 47.0977
727 2 32.0879 23.0515 40.9738
728 2 29.34 16.4548 41.4128
729 2 26.8706 20.0127 40.964
730 2 23.8986 19.0776 41.602
731 1 31.9057 18.8413 45.0276
732 1 25.111 20.3196 43.2821
733 1 26.7213 16.3865 45.1569
734 1 30.4842 22.7512 43.5556
735 2 22.8226 21.3364 44.0442
736 2 3.12721 0.174145 47.6013
737 2 28.9152 0.574648 41.5905
738 2 21.6782 16.4379 44.3498
739 2 25.7213 1.23451 41.3715
740 2 27.269 2.03291 47.0764
741 2 27.4761 21.9232 43.5517
742 2 25.6104 20.947 46.5433
743 1 24.4904 18.5597 47.7313
744 1 28.1267 20.3283 46.1606
745 1 29.9377 16.3181 47.5959
746 1 23.2977 22.627 46.1653
747 2 26.9062 18.1553 47.14
748 2 30.201 20.2137 43.935
749 2 2.89654 1.98865 45.2505
750 2 24.1288 18.1345 44.7613
751 2 25.2674 0.366901 46.7124
752 2 19.3438 11.9223 43.9436
753 2 28.0051 22.8063 46.2039
754 2 20.5887 22.4417 46.4123
755 3 12.9585 14.385 52.5207
756 3 13.421 15.2291 51.9028
